% Model:              2D axissymmetric.mph
% Version:            COMSOL 6.0.0.312
% Date:               Jan 18 2022, 16:54
% Dimension:          2
% Nodes:              6834
% Expressions:        7
% Description:        Dependent variable T
% Length unit:        m
% R                       Z                        T (degC) @ t=1           T (degC) @ t=2           T (degC) @ t=3           T (degC) @ t=4           T (degC) @ t=5           T (degC) @ t=10          T (degC) @ t=20
0.25                      0                        25.80000000000001        25.80000000000001        25.80000000000001        25.80000000000001        25.80000000000001        25.80000000000001        25.80000000000001
0.5000000000010827        0                        25.799999722009943       25.800007916327957       25.80000013021663        25.79999999999478        25.800000000002285       25.800000000002854       25.79999999999825
0.25                      2                        25.80000000000001        25.80000000000001        25.80000000000001        25.80000000000001        25.80000000000001        25.80000000000001        25.80000000000001
0.5000000000008663        1.9999999999999996       25.79999972199272        25.800007916369907       25.800000130206456       25.79999999998563        25.79999999999427        25.799999999993247       25.7999999999941
0.25                      4                        25.80000000000001        25.80000000000001        25.80000000000001        25.80000000000001        25.80000000000001        25.80000000000001        25.80000000000001
0.5000000000006497        3.9999999999999987       25.799999721868176       25.800007915923743       25.800000130128524       25.79999999991975        25.799999999934926       25.79999999995249        25.799999999963404
0.8000000000008276        0                        25.799999157207196       25.80001558215025        25.800000378640334       25.799999999975          25.80000000000615        25.800000000004275       25.799999999991257
0.800000000000662         2                        25.79999915713188        25.800015581928847       25.800000378594746       25.79999999993572        25.799999999970566       25.79999999997989        25.799999999973693
0.25                      6.000000000000001        25.80000000000001        25.80000000000001        25.80000000000001        25.80000000000001        25.80000000000001        25.80000000000001        25.80000000000001
0.5000000000004331        6.000000000000001        25.799999721122845       25.800007914080766       25.800000129655928       25.799999999519173       25.799999999574652       25.799999999699253       25.799999999777526
1.1000000000005725        0                        25.799998807886197       25.800000725258258       25.80000062939655        25.800000000009106       25.799999999778777       25.79999999997642        25.79999999996511
1.1000000000004577        1.9999999999999996       25.79999880758868        25.800000725136613       25.800000629215845       25.79999999985307        25.799999999638146       25.799999999881265       25.799999999893373
0.25                      8.000000000000002        25.80000000000001        25.80000000000001        25.80000000000001        25.80000000000001        25.80000000000001        25.80000000000001        25.80000000000001
0.5000000000002166        8                        25.799999716592993       25.800007901803212       25.80000012673736        25.79999999706672        25.799999997367877       25.79999999810724        25.79999999863162
1.4000000000003174        0                        25.799998573541757       25.800162687604825       25.800000916152385       25.799999999848637       25.79999999978247        25.79999999991577        25.79999999991253
1.4000000000002544        1.9999999999999996       25.79999857280319        25.8001626887808         25.800000915710314       25.79999999946091        25.79999999943317        25.799999999669012       25.79999999973296
0.25                      9                        25.80000000000001        25.80000000000001        25.80000000000001        25.80000000000001        25.80000000000001        25.80000000000001        25.80000000000001
0.5000000000001082        8.999999999999998        25.7999996676877         25.800007737375495       25.800000093117774       25.79999996963994        25.79999997269215        25.799999980335258       25.799999985834177
1.7000000000000624        0                        25.799997635883585       25.7999409417568         25.800000275729474       25.799999998349108       25.800000001427975       25.799999999601937       25.799999999688794
1.7000000000000492        2                        25.79999763321979        25.79994094349877        25.800000274162073       25.799999996966847       25.8000000001839         25.799999998705516       25.799999999045895
0.25                      9.5                      25.80000000000001        25.80000000000001        25.80000000000001        25.80000000000001        25.80000000000001        25.80000000000001        25.80000000000001
0.5000000000000541        9.5                      25.79999898196337        25.800004478979815       25.799999626123395       25.79999958637478        25.799999627875195       25.799999732048263       25.799999807019674
1.9999999999998073        0                        25.80000206082883        25.802183156312026       25.80000217780116        25.799999993928054       25.800000009496443       25.799999999519855       25.799999999523948
1.9999999999998455        2.0000000000000004       25.800002056614517       25.802183149607572       25.800002175326483       25.799999991751918       25.800000007537676       25.799999998119176       25.79999999850969
0.25                      9.75                     25.80000000000001        25.80000000000001        25.80000000000001        25.80000000000001        25.80000000000001        25.80000000000001        25.80000000000001
0.5000000000000271        9.750000000000002        25.799993726609785       25.79999748045833        25.799996417249076       25.799996820339572       25.799997139291406       25.79999793996916        25.799998516329538
2.3499999999993246        0                        25.80001225960325        25.79909723119067        25.79999312873906        25.799999996711847       25.80000000332626        25.799999998967905       25.799999999490183
2.349999999999459         2                        25.800012254827152       25.799097211927574       25.79999312587114        25.799999994255188       25.80000000111511        25.79999999738891        25.799999998346493
0.25                      9.875                    25.80000000000001        25.80000000000001        25.80000000000001        25.80000000000001        25.80000000000001        25.80000000000001        25.80000000000001
0.5000000000000135        9.875                    25.799969382494226       25.79997815174596        25.7999818912171         25.799984167655168       25.799985755248315       25.799989741238903       25.79999261109583
2.650000000000735         0                        25.799995342895727       25.799407388997906       25.80000060605886        25.79999999548687        25.800000003578305       25.799999998884346       25.79999999909211
2.650000000000588         1.9999999999999996       25.79999533448671        25.79940736945423        25.80000060087025        25.799999991121638       25.79999999965213        25.799999996071506       25.79999999705717
0.25                      9.9375                   25.80000000000001        25.80000000000001        25.80000000000001        25.80000000000001        25.80000000000001        25.80000000000001        25.80000000000001
0.5000000000000068        9.9375                   25.799756747554397       25.799824212909186       25.799855482929843       25.799873870506076       25.799886515208925       25.799918265839665       25.79994112881178
3.0000000000002522        0                        25.799994995655993       25.798457972832068       25.799999143263335       25.80000000727904        25.799999970571605       25.79999999633617        25.79999999773014
3.000000000000202         1.9999999999999996       25.799994974852495       25.798457976367217       25.79999913074056        25.799999996473275       25.799999960854223       25.799999989347498       25.79999999269097
0.25                      10                       25.80000000000001        25.80000000000001        25.80000000000001        25.80000000000001        25.80000000000001        25.80000000000001        25.80000000000001
0.5                       10                       25.76401285728707        25.774079551663363       25.778607706749085       25.78133159049787        25.783202787607536       25.787901760206523       25.79128571643838
3.4000000000006523        0                        25.799997934651344       25.801517330945217       25.80000547649763        25.799999984572196       25.800000004616777       25.799999994719826       25.799999995670873
3.4000000000005217        2                        25.79999789348045        25.80151731399161        25.800005452189623       25.799999963243067       25.799999985429793       25.799999980917676       25.799999985720433
0.800000000000005         9.937499999999996        25.791449913742838       25.793838742020114       25.79491779519077        25.795564885278452       25.796009444202298       25.797125809831186       25.79792974673944
0.8                       9.999999999999998        25.73862343134266        25.7557925876431         25.763518270940153       25.76816386147499        25.771355111337698       25.779368751089123       25.7851395667073
3.749999999996839         0                        25.800003763259895       25.79953097473657        25.79999443352392        25.799999989172193       25.799999988338413       25.799999991834397       25.799999994715904
3.749999999997471         2                        25.800003709504267       25.79953093937843        25.799994401788865       25.79999996132898        25.799999963287064       25.79999997381259        25.799999981726785
1.1000000000000032        9.9375                   25.77652760145122        25.783087324195776       25.786048939760633       25.787825458367024       25.789045868533037       25.792110429553475       25.79431726062478
1.0999999999999999        10                       25.715193504954357       25.738920884876507       25.749597713699984       25.756016678865024       25.760425968140055       25.771497744042108       25.779470419810536
4.149999999997794         0                        25.799998050262843       25.79987861438775        25.80000362760495        25.799999995583278       25.799999979453673       25.79999999392453        25.7999999952645
4.149999999998235         2                        25.79999799474308        25.799878560958973       25.80000359478015        25.799999966866267       25.799999953612826       25.79999997533514        25.79999998187094
1.4000000000000012        9.937500000000004        25.758690383404314       25.770270685494324       25.77545019095089        25.7785767265961         25.780724460773172       25.78611735558576        25.79000066077367
1.4                       10                       25.692440090215996       25.722545573913408       25.736084335037788       25.744225440369917       25.749817438541356       25.763858191554107       25.773968198199498
4.549999999998749         0                        25.800001292532215       25.800264141602042       25.79999749903442        25.79999998332437        25.80000001099961        25.79999999467941        25.79999999637687
4.549999999999001         2                        25.800001240540155       25.800264084016476       25.799997467878313       25.799999956435215       25.79999998681143        25.799999977279356       25.7999999838417
1.7000000000000006        9.9375                   25.73941087340819        25.756347432831205       25.76399790669683        25.768583768272492       25.771733695702892       25.77964259108427        25.78533726605815
1.7000000000000002        10                       25.670087218506694       25.70645864078449        25.722814661142536       25.732647641654296       25.73940136103454        25.756357877897187       25.76856651786653
4.949999999999704         0                        25.799998829341803       25.79940697915748        25.800000540244866       25.80000000416163        25.79999996417706        25.799999993534414       25.79999999570782
4.949999999999764         2                        25.79999876587908        25.799406962142484       25.800000502542275       25.799999971331715       25.799999934654807       25.79999997229055        25.7999999804058
1.9999999999999996        9.937500000000004        25.71938638054661        25.742310982999413       25.752107896958535       25.758208963562026       25.762399701386926       25.77292113941604        25.78049639210883
2.0000000000000004        10.000000000000002       25.647999381219336       25.69065895813378        25.70970947279835        25.721213945367026       25.729115399814532       25.748951989277884       25.763233134545146
5.35000000000066          0                        25.799999775706226       25.800503234403436       25.80000309532278        25.79999998124839        25.799999985549107       25.79999998907431        25.79999999156672
5.35000000000053          2                        25.799999667379268       25.8005032041616         25.800003031897916       25.799999925223688       25.799999935141898       25.799999952805308       25.799999965442964
2.3499999999999956        9.937500000000005        25.695539201610927       25.724755917126345       25.737951705558885       25.74585948361306        25.751289621243586       25.764921476837344       25.77473523600429
2.3499999999999996        10.000000000000002       25.6224922117687         25.672308772767224       25.694582721726874       25.708018472811773       25.717245176151607       25.74040645878989        25.757079446280954
5.800000000000277         0                        25.800000863320008       25.800244953123013       25.799998975059395       25.799999956772638       25.79999998263844        25.799999976922436       25.79999998323865
5.800000000000222         1.9999999999999996       25.800000660393778       25.80024475888598        25.799998855054014       25.799999851869813       25.799999888236528       25.79999990899114        25.799999934319032
2.6500000000000052        9.937499999999998        25.67487113261734        25.70979711041406        25.725694987312636       25.735165665747672       25.741669523599          25.757995408814224       25.76974755716327
2.649999999999999         10                       25.600809514550235       25.65660550478242        25.68173447942496        25.69681094460975        25.70716385847794        25.733149750109078       25.751854235881524
6.249999999999894         0                        25.800000048056518       25.799882596059888       25.799998930869208       25.799999943289663       25.799999955442615       25.79999996475601        25.79999997457668
6.249999999999913         2                        25.799999726600277       25.799882315861566       25.799998738877832       25.799999777095366       25.79999980596608        25.799999857152386       25.79999989709313
3.000000000000002         9.937499999999996        25.650615808795067       25.692273442412215       25.711315804538458       25.7226226587253         25.730386537749382       25.74987311972734        25.76389884043266
3                         9.999999999999998        25.57568111025506        25.638512483586283       25.666853497060856       25.683832224679293       25.695490106029013       25.724747990123205       25.74580502126645
6.749999999999839         0                        25.79999970762674        25.799863933358097       25.79999908992312        25.799999934836478       25.79999994631288        25.799999958732087       25.7999999704291
6.749999999999871         2                        25.79999927694439        25.799863711482715       25.79999883558918        25.799999712328372       25.799999746202616       25.799999814695866       25.799999866717997
3.400000000000002         9.937499999999996        25.622787908252633       25.672695133714          25.694832556796655       25.708244496072894       25.71745368296837        25.740564575830604       25.757196507468848
3.399999999999999         10                       25.54713070835487        25.61813649526448        25.649961435707382       25.669100498069042       25.68224069334991        25.715213913929233       25.738941244461046
7.200000000000012         0                        25.79999960806083        25.799895175442202       25.800000125682345       25.7999999518629         25.79999994093606        25.79999996489107        25.799999975129197
7.200000000000009         2                        25.799999142920456       25.799894746583107       25.799999850583106       25.79999971188022        25.79999972506721        25.79999980956859        25.799999863303015
3.7499999999999774        9.9375                   25.598394835523095       25.654997360948585       25.68039214007206        25.695652230820485       25.706128081770714       25.7324142512623         25.751328679084338
3.7499999999999982        10                       25.522266035521284       25.600311693151866       25.635261237031784       25.656283237623427       25.67071412315022        25.706921158698265       25.732971774618193
7.699999999999957         0                        25.799999917325977       25.800076673116223       25.800000994374273       25.799999979680933       25.799999972965622       25.799999985148077       25.799999989147295
7.699999999999965         1.9999999999999996       25.799999506460892       25.800076460918262       25.800000750469053       25.79999976790009        25.799999782584962       25.799999848167374       25.799999890544314
4.149999999999987         9.9375                   25.570502592513435       25.634945505011046       25.663898761137148       25.681268901297756       25.693192657831673       25.72310714801654        25.74462872784278
4.150000000000001         10                       25.493961240070632       25.579952863830158       25.6185444773688         25.641708748298186       25.657608482077933       25.697494273286623       25.72618670660296
8.25000000000023          0                        25.800000168356803       25.80007659347706        25.80000006857898        25.800000015253374       25.80000002303484        25.800000012293538       25.800000008596726
8.250000000000181         1.9999999999999996       25.799999901729734       25.8000763873157         25.799999913897693       25.79999987845048        25.799999899957584       25.799999923874054       25.799999944978083
4.549999999999995         9.9375                   25.54262477525009        25.61504532932298        25.647427008690215       25.666908191192988       25.68027881714397        25.71381751501815        25.7379421570584
4.550000000000004         10                       25.465764443286048       25.55982011053294        25.60190750333436        25.627206672952013       25.644569318560002       25.68811735919985        25.71943850382314
8.750000000003505         0                        25.800000114013756       25.799971175361804       25.79999960744334        25.80000004408913        25.800000042504678       25.800000029029377       25.800000021060214
8.750000000002803         2                        25.799999987983426       25.79997093724205        25.79999953011452        25.799999979949803       25.799999984942758       25.799999987708702       25.79999999136885
4.950000000000006         9.937499999999995        25.51477237427281        25.594956741196484       25.630987834829284       25.652577353344157       25.667393121177042       25.704550201109214       25.73127250931026
4.950000000000006         9.999999999999998        25.437661765327505       25.539629582357406       25.585343531431477       25.612770578386915       25.63159088226041        25.67878637736453        25.71272430208012
9.300000000000447         0                        25.80000005381288        25.799980673229243       25.80000008779507        25.80000004633399        25.800000038576684       25.800000029290175       25.80000002113036
9.300000000000358         2                        25.799999999993588       25.7999808616176         25.80000005878145        25.800000019323647       25.800000014453417       25.80000001204462        25.80000000875185
5.35000000000001          9.937499999999996        25.486948772588335       25.57517350077262        25.614582381706384       25.638278047495135       25.65453714813333        25.69530642868449        25.724620711671434
5.3500000000000085        9.999999999999998        25.409638515871336       25.51963886730988        25.568844216803313       25.598392994413814       25.618666510835737       25.669496610767567       25.706040745775397
9.849999999997388         0                        25.800000014007026       25.800003134405983       25.80000005095394        25.800000010443284       25.800000009892813       25.80000000690734        25.80000000495079
9.84999999999791          1.9999999999999996       25.799999870836018       25.800002896144292       25.799999969554392       25.799999937513235       25.799999944094793       25.799999959812965       25.799999971105535
5.8000000000000025        9.9375                   25.455677107368558       25.55278175111829        25.59616309359899        25.622227273427484       25.64010818130913        25.684934346058697       25.717158125562605
5.800000000000001         10                       25.378188179750566       25.497172071515706       25.55034751716954        25.582278466679497       25.604182553282612       25.659088747925466       25.698554001913806
10.449999999999653        0                        25.799999897056125       25.800000244305238       25.79999994576866        25.799999947277342       25.799999951721077       25.799999965614518       25.79999997530308
10.44999999999972         2                        25.799999451175324       25.79999991367231        25.799999678379834       25.79999971796667        25.799999745769185       25.79999981742384        25.799999868672728
6.249999999999991         9.937499999999998        25.42442976113756        25.530390288375088       25.577780604323664       25.606211318740634       25.625712360029922       25.674589081554984       25.70971610056108
6.249999999999992         10                       25.34679876436718        25.474728649308815       25.53190924603706        25.56621805130601        25.589749179141393       25.648720405784218       25.69109704044581
11.05000000000192         0                        25.799999779458915       25.80000234087595        25.799999915787055       25.799999885950285       25.799999896382985       25.799999925953955       25.799999946717207
11.050000000001532        1.9999999999999996       25.79999888066652        25.800001797443997       25.799999388851177       25.799999423649354       25.799999480675865       25.79999962702817        25.79999973155941
6.7499999999999964        9.937499999999998        25.38973180696979        25.50560356524403        25.55739404536456        25.588453036808176       25.60975270180552        25.663123634985084       25.70146980722228
6.749999999999998         10                       25.311974597064875       25.449875792833836       25.51147972281109        25.548427078731436       25.57376290756548        25.637240355268318       25.682842179785496
11.700000000000626        0                        25.799999724870815       25.800004173747084       25.799999869537544       25.799999855823387       25.79999987077548        25.79999990699423        25.799999932944502
11.700000000000498        2                        25.799998321264525       25.800003065010344       25.799999039779152       25.79999913449967        25.799999222220094       25.799999440613135       25.79999959731896
7.199999999999998         9.9375                   25.358518615269077       25.48333134419846        25.539078330345887       25.572502079701167       25.59541938490287        25.65282994207729        25.69406772911458
7.199999999999998         10                       25.280668877371056       25.427555686729306       25.493137843014154       25.532457732727323       25.55941562715043        25.626940836045264       25.675437726965356
12.349999999999334        0                        25.799999773184425       25.79999777557225        25.799999788826824       25.79999988250927        25.799999896695          25.799999924627286       25.7999999457557
12.349999999999467        2                        25.799998038211754       25.799996612809423       25.799998768506555       25.799998992100655       25.799999096261047       25.799999349188          25.799999531686638
7.699999999999999         9.9375                   25.32385163203179        25.45863513611374        25.518761855257026       25.554812662929294       25.579526270743884       25.641419931561472       25.685864597375996
7.699999999999998         10                       25.245916403886326       25.40281423405088        25.472802525245584       25.514756841644612       25.543515113505634       25.615530321056838       25.667236323855718
12.99999999999804         0                        25.799999915338674       25.799995435930327       25.79999991765078        25.799999959577633       25.79999996331361        25.799999973814522       25.79999998127471
12.999999999998439        2                        25.799998158415974       25.799994114614606       25.799998883670696       25.799999059752565       25.79999915450003        25.799999392609834       25.799999563185736
8.25                      9.9375                   25.28573425958143        25.431487120758618       25.496454453705553       25.535394876457133       25.562083223377954       25.6289020312596         25.676867069779405
8.25                      10                       25.20772056355281        25.375640944955364       25.450483430688735       25.495334299991043       25.526071063085112       25.603017138802556       25.658244571879834
13.69999999999874         0                        25.800000115782666       25.80000118708182        25.80000012643262        25.800000061231174       25.80000005297535        25.800000039215945       25.800000028313036
13.699999999998996        2                        25.7999987091589         25.800000263706465       25.799999302856065       25.7999993431078         25.79999940776446        25.799999575935374       25.799999695205827
8.750000000000021         9.937499999999998        25.2510958938293         25.40682556264062        25.476211384282806       25.517778537246727       25.546261123749446       25.61755190593294        25.668710891314163
8.75                      10                       25.17302132342064        25.350967800925844       25.430235483965873       25.477718739076693       25.510252685914452       25.591674745632304       25.65009618769244
14.39999999999944         0                        25.800000262000026       25.80000229790653        25.800000159024194       25.80000013333148        25.80000012109747        25.800000086697594       25.800000062332572
14.399999999999554        1.9999999999999996       25.799999467759562       25.800001657699283       25.799999696487532       25.799999730777245       25.799999759521143       25.799999827642523       25.79999987633971
9.300000000000008         9.9375                   25.21300636285406        25.37974523811107        25.453982268419054       25.498438766381753       25.52889414150934        25.605098610231153       25.659764223769685
9.300000000000004         10                       25.13487350503982        25.32387224953328        25.40800552962918        25.458383850861196       25.492893457940397       25.579232692428093       25.641160130113064
15.100000000000142        0                        25.800000278828918       25.799999305352742       25.800000141938312       25.80000014297184        25.800000128835165       25.800000092485675       25.800000066606287
15.100000000000115        1.9999999999999996       25.800000116525325       25.799999244181777       25.800000048551          25.80000006437899        25.800000059078172       25.800000043155705       25.800000031508603
9.849999999999987         9.9375                   25.174925630382575       25.35270075021168        25.431789900631884       25.479136286008668       25.51156383811741        25.59267701251008        25.650842744400734
9.850000000000007         10                       25.09674152830644        25.296816665111123       25.38581582404845        25.439089296768543       25.475573675363762       25.566824420958255       25.63225082386606
15.899999999999832        0                        25.800000126850705       25.799999723144026       25.80000007747242        25.8000000650253         25.80000005803811        25.800000041866156       25.80000003014169
15.899999999999867        1.9999999999999996       25.80000036107873        25.799999848105188       25.800000220481934       25.80000018879298        25.800000169483212       25.800000122968584       25.800000088949275
10.450000000000001        9.937499999999996        25.13338577767439        25.323225473220305       25.407617022334477       25.458117237260296       25.492696014226055       25.579159632347512       25.64113706981692