% Model:              2D Vinsome.mph
% Version:            COMSOL 6.0.0.312
% Date:               Jan 18 2022, 16:51
% Dimension:          2
% Nodes:              2211
% Expressions:        7
% Description:        Dependent variable T
% Length unit:        m
% R                       Z                        T (degC) @ t=1           T (degC) @ t=2           T (degC) @ t=3           T (degC) @ t=4           T (degC) @ t=5           T (degC) @ t=10          T (degC) @ t=20
0.25                      0                        25.80000000000001        25.80000000000001        25.80000000000001        25.80000000000001        25.80000000000001        25.80000000000001        25.80000000000001
0.5000000000010827        0                        25.799999999993588       25.79999999999552        25.799999999996317       25.799999999996828       25.79999999999717        25.799999999998022       25.79999999999859
0.25                      2                        25.80000000000001        25.80000000000001        25.80000000000001        25.80000000000001        25.80000000000001        25.80000000000001        25.80000000000001
0.5000000000008662        1.9999999999999996       25.799999999980173       25.799999999986085       25.7999999999887         25.799999999990177       25.799999999991257       25.799999999993815       25.799999999995634
0.25                      4                        25.80000000000001        25.80000000000001        25.80000000000001        25.80000000000001        25.80000000000001        25.80000000000001        25.80000000000001
0.5000000000006497        3.999999999999999        25.799999999883084       25.79999999991793        25.799999999933107       25.799999999942145       25.799999999948284       25.79999999996346        25.799999999974204
0.8000000000008276        0                        25.799999999970055       25.799999999979036       25.7999999999829         25.799999999985175       25.799999999986767       25.799999999990746       25.799999999993474
0.8000000000006618        1.9999999999999993       25.79999999990855        25.799999999935835       25.799999999947715       25.79999999995482        25.799999999959596       25.799999999971533       25.799999999979832
0.25                      6.000000000000001        25.80000000000001        25.80000000000001        25.80000000000001        25.80000000000001        25.80000000000001        25.80000000000001        25.80000000000001
0.5000000000004331        6.000000000000001        25.79999999928816        25.799999999500358       25.79999999959307        25.79999999964798        25.799999999685326       25.79999999977781        25.799999999842953
1.1000000000005725        0                        25.79999999987723        25.799999999913894       25.799999999929753       25.799999999939303       25.799999999945726       25.7999999999617         25.79999999997301
1.1000000000004582        2                        25.799999999625015       25.799999999736883       25.799999999785655       25.799999999814645       25.799999999834313       25.799999999883084       25.799999999917304
0.25                      8.000000000000002        25.80000000000001        25.80000000000001        25.80000000000001        25.80000000000001        25.80000000000001        25.80000000000001        25.80000000000001
0.5000000000002166        8                        25.799999995615963       25.799999996923248       25.799999997493842       25.799999997832174       25.799999998062276       25.799999998631733       25.799999999033105
1.4000000000003174        0                        25.799999999698684       25.79999999978861        25.79999999982772        25.799999999851025       25.799999999866827       25.799999999905936       25.799999999933675
1.4000000000002537        1.9999999999999996       25.799999999076817       25.799999999352224       25.799999999472277       25.79999999954356        25.79999999959199        25.799999999711986       25.7999999997964
0.25                      9                        25.80000000000001        25.80000000000001        25.80000000000001        25.80000000000001        25.80000000000001        25.80000000000001        25.80000000000001
0.5000000000001084        8.999999999999998        25.79999995346202        25.79999996734756        25.799999973404795       25.799999976995537       25.79999997943878        25.799999985481236       25.799999989740627
1.7000000000000624        0                        25.79999999891845        25.79999999924098        25.79999999938167        25.79999999946517        25.7999999995219         25.79999999966242        25.799999999761553
1.7000000000000492        2                        25.799999996678707       25.79999999766909        25.799999998101327       25.799999998357634       25.799999998531973       25.79999999896347        25.79999999926747
0.25                      9.5                      25.80000000000001        25.80000000000001        25.80000000000001        25.80000000000001        25.80000000000001        25.80000000000001        25.80000000000001
0.5000000000000542        9.5                      25.799999338431007       25.79999953592136        25.799999622034647       25.799999673075888       25.799999707802556       25.799999793678182       25.799999854208977
1.9999999999998073        0                        25.79999999830818        25.79999999881278        25.799999999032934       25.799999999163617       25.799999999252293       25.799999999471993       25.79999999962706
1.9999999999998457        2.0000000000000004       25.799999994701807       25.79999999628194        25.799999996971508       25.799999997380382       25.799999997658574       25.79999999834672        25.799999998831595
0.25                      9.75                     25.80000000000001        25.80000000000001        25.80000000000001        25.80000000000001        25.80000000000001        25.80000000000001        25.80000000000001
0.5000000000000271        9.750000000000002        25.79999497301668        25.799996472941757       25.79999712722889        25.799997515097402       25.7999977790098         25.799998431694917       25.7999988917864
2.3499999999993246        0                        25.799999998160274       25.79999999870921        25.799999998948635       25.799999999090687       25.79999999918715        25.799999999426063       25.799999999594604
2.34999999999946          2                        25.799999994016332       25.7999999958015         25.79999999658031        25.799999997041937       25.79999999735611        25.79999999813316        25.799999998680732
0.25                      9.875                    25.80000000000001        25.80000000000001        25.80000000000001        25.80000000000001        25.80000000000001        25.80000000000001        25.80000000000001
0.5000000000000135        9.875                    25.799976211741523       25.799983305425144       25.7999864013168         25.79998823692995        25.799989486028608       25.799992575506053       25.79999475353401
2.650000000000735         0                        25.799999996757606       25.799999997724967       25.799999998146916       25.79999999839731        25.799999998567387       25.79999999898837        25.79999999928532
2.650000000000588         1.9999999999999996       25.799999989473918       25.799999992614346       25.799999993984272       25.799999994796508       25.799999995349197       25.79999999671594        25.799999997679322
0.25                      9.9375                   25.80000000000001        25.80000000000001        25.80000000000001        25.80000000000001        25.80000000000001        25.80000000000001        25.80000000000001
0.5000000000000068        9.9375                   25.79977922423558        25.799845053607896       25.79987378557081        25.799890821779286       25.79990241476702        25.799931089029144       25.7999513042966
3.0000000000002522        0                        25.799999991902837       25.79999999431891        25.799999995372673       25.79999999599761        25.79999999642257        25.79999999747389        25.799999998215128
3.000000000000202         1.9999999999999996       25.799999973905983       25.7999999816916         25.79999998508788        25.799999987101216       25.7999999884712         25.79999999185918        25.7999999942474
0.25                      10                       25.80000000000001        25.80000000000001        25.80000000000001        25.80000000000001        25.80000000000001        25.80000000000001        25.80000000000001
0.5                       10                       25.770971554899404       25.77962311205988        25.78340067799826        25.785640856536645       25.787165388063272       25.790936469866892       25.793595230444453
3.4000000000006523        0                        25.799999984346073       25.799999989018033       25.799999991055472       25.799999992263338       25.79999999308501        25.79999999511722        25.799999996549843
3.400000000000521         2                        25.79999994839818        25.799999963798598       25.799999970515046       25.79999997449636        25.79999997720529        25.799999983904286       25.799999988626325
0.8000000000000049        9.937499999999996        25.793075834790102       25.79513963565296        25.796040708652015       25.796575052950743       25.796938691739513       25.797838178186737       25.798472345093842
0.7999999999999998        9.999999999999998        25.749029792297733       25.764223391679366       25.77085645800446        25.77478979810337        25.777466522086172       25.78408748119068        25.78875541150319
3.749999999996839         0                        25.79999998058713        25.799999986382886       25.799999988909747       25.799999990407514       25.79999999142649        25.79999999394613        25.799999995722374
3.74999999999747          2                        25.799999932995718       25.79999995299943        25.79999996172114        25.799999966890482       25.79999997040761        25.799999979104655       25.799999985234933
1.1000000000000032        9.9375                   25.780486310313563       25.786303442658607       25.788842901863404       25.790348747830876       25.791373499410497       25.793908227844554       25.79569525415866
1.0999999999999996        10                       25.728285035592933       25.749665860441837       25.758998770099936       25.764532804815758       25.768298739603324       25.77761364352591        25.78418072443276
4.149999999997794         0                        25.799999982176814       25.799999987500712       25.799999989820776       25.79999999119582        25.79999999213112        25.79999999444385        25.799999996074064
4.1499999999982355        2                        25.799999932189735       25.799999952443386       25.799999961270487       25.79999996650156        25.799999970060412       25.799999978860058       25.799999985062186
1.4000000000000012        9.937500000000004        25.765061829956323       25.77547881058041        25.780025672768375       25.782721724787393       25.784556381636662       25.789094288300475       25.792293515973938
1.3999999999999995        10                       25.707823730169764       25.73530934713301        25.74730533536905        25.754418094459425       25.7592582310167         25.771229803409653       25.779669667382905
4.549999999998749         0                        25.799999986056037       25.79999999022357        25.79999999203875        25.79999999311451        25.799999993846086       25.799999995654844       25.799999996929785
4.549999999998999         2                        25.799999938614746       25.799999956958118       25.799999964949336       25.799999969684393       25.799999972905482       25.79999998086936        25.799999986482135
1.7                       9.9375                   25.748090924718895       25.763570526956187       25.770326146496643       25.774331658033077       25.777057324164616       25.783798889477055       25.788551584755453
1.6999999999999995        10                       25.687493592305202       25.72104705841616        25.735689185778483       25.744370447314452       25.750277768748163       25.764888494111744       25.775188700422746
4.949999999999704         0                        25.799999983732505       25.79999998859529        25.79999999071299        25.799999991967923       25.79999999282137        25.799999994931454       25.799999996418705
4.949999999999764         2                        25.79999992619247        25.799999948252662       25.799999957861417       25.799999963554512       25.799999967427198       25.799999977001676       25.79999998374933
1.9999999999999987        9.937500000000004        25.730218471460773       25.75103146438454        25.760113288794912       25.765497738931117       25.76916163936778        25.7782235257838         25.784611850990416
1.9999999999999993        10.000000000000002       25.66722116174958        25.706827541612256       25.72410843699356        25.73435364397426        25.741324985275696       25.758566866900992       25.770721680157806
5.35000000000066          0                        25.799999968761313       25.799999978098867       25.79999998216573        25.79999998457555        25.799999986214573       25.79999999026677        25.79999999312264
5.350000000000526         2                        25.79999987181054        25.799999910127724       25.79999992681678        25.799999936704637       25.799999943430635       25.799999960059267       25.799999971778107
2.349999999999996         9.937500000000005        25.708674609818445       25.73591915375846        25.747805196390345       25.754851734483736       25.759646452834772       25.771504743060063       25.77986418480458
2.35                      10.000000000000002       25.643617308847865       25.69027433116395        25.710627818520834       25.722693840593877       25.73090387553077        25.75120862830653        25.76552221676849
5.800000000000277         0                        25.79999993800851        25.799999956543104       25.799999964614074       25.7999999693958         25.799999972648266       25.799999980688767       25.799999986355033
5.800000000000222         1.9999999999999996       25.79999975682415        25.79999982953143        25.79999986119219        25.799999879948928       25.799999892707262       25.79999992424814        25.79999994647477
2.6500000000000057        9.937499999999998        25.689823330932768       25.72269798582903        25.737037920254693       25.74553870915753        25.751322774071184       25.765627444933386       25.77571117587678
2.6500000000000004        10                       25.62341873820685        25.676111956672912       25.699094930663648       25.712718959541462       25.721988823191396       25.74491396975634        25.761074346280225
6.249999999999894         0                        25.799999905131813       25.799999933508275       25.79999994586052        25.799999953177576       25.799999958154274       25.79999997045644        25.79999997912529
6.249999999999917         1.9999999999999996       25.799999616398225       25.79999973113911        25.79999978108617        25.799999810672432       25.79999983079557        25.799999880540213       25.799999915592423
3.000000000000002         9.937499999999996        25.667516848521586       25.70705653073435        25.72430031303719        25.734521765835325       25.74147633727239        25.758675123147327       25.770798589104913
3                         9.999999999999998        25.599876303301016       25.659608354868567       25.685656338030412       25.701096152176945       25.71160110253379        25.737579711233195       25.755891943698145
6.749999999999839         0                        25.79999988788245        25.79999992143854        25.79999993603792        25.799999944684487       25.799999950564825       25.799999965099346       25.79999997534037
6.74999999999987          2                        25.799999497143517       25.799999647639254       25.799999713119178       25.79999975189969        25.799999778273786       25.799999843464775       25.799999889397327
3.4000000000000035        9.937499999999996        25.641723035359803       25.68897395533645        25.709575833596773       25.72178676784148        25.73009459329637        25.75063902534373        25.76512027178552
3.4                       10                       25.572977613991043       25.640756607665708       25.67030685090583        25.687821107701097       25.699736950226566       25.72920330852105        25.749973244284092
7.200000000000012         0                        25.799999903403034       25.799999932333208       25.799999944912543       25.799999952361134       25.799999957426223       25.799999969944338       25.79999997876388
7.200000000000009         2                        25.799999476623952       25.79999963335075        25.799999701508057       25.799999741866657       25.79999976931157        25.799999837142536       25.799999884931538
3.7499999999999805        9.9375                   25.61896062713322        25.673020473921326       25.69658604385802        25.710552474135227       25.72005428362644        25.74355030039294        25.760111442920106
3.7500000000000004        10                       25.54943633254038        25.62426215722553        25.656877797147615       25.676207384351585       25.68935776695065        25.721875604696834       25.744795626310975
7.699999999999957         0                        25.79999995420178        25.79999996793606        25.799999973900697       25.799999977430957       25.799999979831114       25.799999985761588       25.799999989939465
7.699999999999966         1.9999999999999996       25.79999957030634        25.799999699076977       25.799999755039494       25.79999978816869        25.799999810694715       25.79999986636159        25.799999905577124
4.149999999999985         9.9375                   25.59278463252508        25.65467932287828        25.68165335007427        25.697638332466795       25.708512904323413       25.735402088948717       25.754354081234453
4.1499999999999995        10                       25.52252480803577        25.60541147386823        25.64153170012844        25.662936282510714       25.67749764644327        25.713502689830875       25.738879578598585
8.25000000000023          0                        25.80000002712717        25.80000001901317        25.80000001547984        25.800000013386523       25.800000011962936       25.800000008443703       25.800000005964932
8.25000000000018          1.9999999999999996       25.799999769751025       25.79999983883539        25.799999868825807       25.79999988657204        25.79999989863603        25.799999928443754       25.799999949440576
4.549999999999989         9.9375                   25.566481477570846       25.636254525535378       25.66665392580518        25.68466703157867        25.69692071957479        25.727218361424207       25.748571728701222
4.549999999999998         10                       25.495609461465108       25.58656392496016        25.62618961927194        25.64966924191691        25.665641451743795       25.705132921749396       25.73296586454876
8.750000000003505         0                        25.800000075809805       25.800000053086762       25.80000004321147        25.800000037365294       25.800000033390404       25.800000023568145       25.8000000166503
8.750000000002803         2                        25.79999994570869        25.799999962059587       25.79999996913176        25.799999973310094       25.799999976148683       25.79999998315907        25.79999998809774
4.9499999999999975        9.937499999999995        25.54008210823997        25.617768116773618       25.651605802887957       25.67165420367178        25.685291719334828       25.71900902013283        25.742771389970244
4.9499999999999975        9.999999999999998        25.46869240324463        25.56772130750238        25.610853101594216       25.636407635226362       25.65379042750368        25.69676720266034        25.727055128954817
9.300000000000447         0                        25.800000079279926       25.800000055491807       25.800000045163245       25.800000039050815       25.800000034895675       25.800000024629526       25.800000017399896
9.300000000000358         2                        25.800000018383344       25.800000012915632       25.80000001052042        25.800000009096948       25.800000008127654       25.80000000573102        25.800000004044705
5.35                      9.937499999999996        25.513604729517795       25.599233196476746       25.6365197369754         25.658609187719776       25.673634268997034       25.710779996081726       25.736957263537477
5.349999999999996         9.999999999999998        25.44177151036979        25.548882456846627       25.595521284270546       25.623150751616663       25.641943956680166       25.68840512081215        25.72114708830145
9.849999999997388         0                        25.800000021052824       25.80000001472723        25.800000011984025       25.800000010361487       25.800000009258724       25.80000000653422        25.800000004616038
9.84999999999791          1.9999999999999996       25.79999988508132        25.79999991962086        25.799999934593643       25.7999999434478         25.799999949465132       25.79999996432764        25.79999997479507
5.8000000000000025        9.9375                   25.483736551108734       25.578332338984126       25.61950992812615        25.643901488928634       25.66049139087744        25.701502914679963       25.730402795635598
5.800000000000001         10                       25.411474468019037       25.527689137096047       25.57827536558824        25.608239643564218       25.628619676579603       25.679000431647808       25.714502575752647
10.449999999999653        0                        25.79999990973903        25.799999936862548       25.799999948624418       25.799999955582052       25.799999960310743       25.79999997198945        25.799999980211908
10.449999999999726        2                        25.799999502614128       25.79999965212761        25.79999971694241        25.799999755275905       25.7999997813273         25.79999984566848        25.7999998909699
6.250000000000003         9.937499999999998        25.45379014831701        25.557385381279687       25.602464796852473       25.629164135854182       25.64732246316197        25.69220802035977        25.723835914086976
6.250000000000004         10                       25.38115777393           25.50649111694628        25.561027926725217       25.593328152875756       25.615295526259843       25.669596435687595       25.70785873180978
11.05000000000192         0                        25.799999798978718       25.79999985944721        25.799999885645946       25.79999990113828        25.799999911665736       25.799999937662278       25.799999955962846
11.050000000001532        2                        25.799998977640485       25.79999928521829        25.799999418461596       25.799999497247256       25.799999550782786       25.79999968298341        25.79999977604814
6.750000000000001         9.937499999999998        25.420431388564452       25.534062266432613       25.583488852478126       25.612758493399724       25.63266335520069        25.681862044852835       25.7165266541802
6.750000000000001         10                       25.34744156515268        25.482927285084997       25.541858442746047       25.57675609221559        25.60048816204136        25.659146358243333       25.70047606351517
11.700000000000626        0                        25.799999741317606       25.79999981921128        25.79999985292949        25.79999987286169        25.799999886403953       25.79999991983948        25.799999943373564
11.700000000000498        2                        25.799998448886413       25.799998916008292       25.799999118194307       25.799999237708107       25.79999931890586        25.799999519379526       25.79999966048365
7.199999999999999         9.9375                   25.390338284583436       25.513032577428703       25.566381474473985       25.597969377237973       25.619449216250132       25.672536574882315       25.709938570758254
7.199999999999999         10                       25.31706526372068        25.461708302477803       25.52459924909101        25.561836586799586       25.58715793927024        25.649739468405926       25.693830590192135
12.349999999999334        0                        25.799999784441184       25.799999849411847       25.799999877512278       25.799999894118002       25.799999905398465       25.799999933245203       25.799999952843677
12.349999999999467        2                        25.799998171043          25.799998722402393       25.7999989608403         25.79999910173666        25.79999919744563        25.79999943370467        25.799999599971727
7.7                       9.9375                   25.356830815497005       25.489628842923764       25.547345913895413       25.5815146188242         25.604747452561185       25.662162072558317       25.702609630585414
7.7                       10                       25.283277430267503       25.438118687066037       25.505415020702856       25.545254308237304       25.572342728523893       25.63928549556806        25.6864456604726
12.99999999999804         0                        25.799999916848265       25.799999941919964       25.799999952758583       25.79999995916171        25.799999963511084       25.799999974247726       25.799999981805797
12.999999999998431        2                        25.7999982629633         25.799998787136474       25.799999013621743       25.79999914741012        25.799999238275518       25.79999946253963        25.79999962034549
8.25                      9.9375                   25.319895978341492       25.46384661727592        25.526379754595837       25.563392618884336       25.58855688441713        25.650738025927467       25.694539568547327
8.249999999999998         10                       25.246067924800457       25.412156132194752       25.48430512114396        25.52700921215802        25.55604274765642        25.627784924243088       25.678321715908567
13.69999999999874         0                        25.80000009810857        25.800000068427607       25.80000005562738        25.800000048069705       25.800000042938507       25.80000003028124        25.800000021382743
13.699999999998994        1.9999999999999996       25.79999874778366        25.799999126006355       25.799999289295215       25.79999938571791        25.799999451194424       25.799999612772922       25.799999726462374
8.750000000000021         9.937499999999998        25.286256782109376       25.440379702755592       25.50730023080405        25.546902878950675       25.5738254024929         25.640344525821547       25.687197800872354
8.750000000000002         10                       25.212204021862533       25.388543255609648       25.46510968830779        25.510420388327304       25.541223285271997       25.617329998104083       25.67093672570701
14.39999999999944         0                        25.8000002344005         25.80000016344229        25.800000132861726       25.800000114811837       25.80000010255867        25.80000007233491        25.800000051083885
14.399999999999551        1.9999999999999996       25.799999439966655       25.79999960912926        25.7999996821506         25.799999725257635       25.799999754527107       25.799999826759972       25.799999877600044
9.300000000000006         9.9375                   25.24919110475895        25.414539634579057       25.48629568922445        25.5287512307155         25.557610141296493       25.628905363396825       25.67911775520645
9.3                       10                       25.174913860723223       25.36255904439639        25.44399115831618        25.49217149336721        25.52492177305919        25.605830736915948       25.662814423225825
15.100000000000142        0                        25.800000258581917       25.80000018022031        25.800000146481693       25.80000012657473        25.800000113063277       25.800000079741494       25.80000005631439
15.100000000000117        1.9999999999999996       25.800000051867755       25.800000035787946       25.800000028987597       25.800000024983262       25.80000002227075        25.80000001561507        25.800000010979716
9.849999999999985         9.9375                   25.212062820865583       25.388674887367074       25.465276016667417       25.510588520288877       25.54138602420892        25.617461274097764       25.671034627190636
9.850000000000001         10                       25.137580907137476       25.33656458303551        25.422869402524384       25.473921897311982       25.50862069761797        25.594333150078228       25.654693713442782
15.899999999999832        0                        25.800000124816734       25.800000086968055       25.800000070683723       25.800000061077526       25.800000054558154       25.80000003848022        25.800000027176168
15.899999999999869        2                        25.800000303522268       25.800000211077133       25.800000171446584       25.800000148080244       25.80000013222798        25.800000093170752       25.800000065753977
10.450000000000001        9.937499999999996        25.17148777944078        25.360431817278254       25.442329486197536       25.49076328150153        25.52367806982204        25.604972121568437       25.66221383748058